#File Generate with Data Generator

2256 atoms
3 atom types

-10.0080 50.0390 xlo xhi
-10.0090 50.0100 ylo yhi
-10.0680 50.0250 zlo zhi

Masses

3 1.0000
2 12.0000
1 16.0000

Atoms

1 1 0.0 22.2030 24.4000 1.8810
2 1 0.0 22.5390 24.5800 -0.0460
3 1 0.0 32.7300 31.5070 5.4490
4 1 0.0 33.4080 33.1090 4.5370
5 1 0.0 13.7530 37.4060 39.0250
6 1 0.0 12.3600 36.0620 39.3560
7 1 0.0 39.9960 35.5210 14.3830
8 1 0.0 38.0820 35.1210 14.1940
9 1 0.0 20.0360 29.5800 12.7560
10 1 0.0 18.7180 30.6870 13.7010
11 1 0.0 33.9000 21.1890 11.5160
12 1 0.0 32.7130 19.7260 10.9600
13 1 0.0 2.0200 9.9150 12.5900
14 1 0.0 2.2240 7.9760 12.8260
15 1 0.0 1.5110 16.9370 20.4220
16 1 0.0 1.2060 16.4750 22.3070
17 1 0.0 19.4820 2.1040 21.6500
18 1 0.0 17.8960 0.9770 21.3780
19 1 0.0 39.3710 13.1660 30.4100
20 1 0.0 39.2630 14.0410 28.6540
21 1 0.0 7.6600 30.7940 4.3580
22 1 0.0 8.1190 28.9310 4.7790
23 1 0.0 30.6560 30.5810 22.4570
24 1 0.0 29.9530 29.1730 23.6320
25 1 0.0 31.3150 10.8000 36.9510
26 1 0.0 29.9140 12.1770 36.9210
27 1 0.0 7.0350 17.0190 39.6290
28 1 0.0 8.5360 15.7600 39.7720
29 1 0.0 17.4680 24.5840 -0.0380
30 1 0.0 16.8680 25.6770 1.4790
31 1 0.0 7.5020 13.8850 26.2760
32 1 0.0 6.8420 15.7090 25.9650
33 1 0.0 32.2410 4.9030 2.7810
34 1 0.0 30.9530 5.5010 1.4230
35 1 0.0 40.0160 23.7800 17.7490
36 1 0.0 39.5590 24.5400 19.5020
37 1 0.0 33.9570 8.6370 22.6970
38 1 0.0 33.0560 9.1940 24.3520
39 1 0.0 2.1310 1.9890 27.0570
40 1 0.0 2.4620 0.4420 28.2210
41 1 0.0 29.8250 32.9260 25.8110
42 1 0.0 30.8030 34.2670 24.7600
43 1 0.0 21.8560 2.1110 20.9600
44 1 0.0 21.1520 0.3270 20.5320
45 1 0.0 23.6640 1.1600 31.5410
46 1 0.0 24.3640 2.8910 30.9310
47 1 0.0 18.1910 37.1680 6.7890
48 1 0.0 16.8880 35.7100 6.6000
49 1 0.0 7.8420 25.3080 31.5180
50 1 0.0 7.4240 23.8680 30.2480
51 1 0.0 5.9490 19.9110 8.4300
52 1 0.0 4.1510 20.5390 7.9500
53 1 0.0 11.1250 16.4570 34.3300
54 1 0.0 10.0060 18.0610 34.5110
55 1 0.0 22.8040 22.8220 22.0810
56 1 0.0 23.6910 22.3000 20.4080
57 1 0.0 37.3850 22.3950 14.3230
58 1 0.0 38.9990 23.5150 14.3190
59 1 0.0 14.3210 18.9500 38.5290
60 1 0.0 15.1470 19.9350 40.0150
61 1 0.0 11.5690 31.3670 29.5050
62 1 0.0 11.3690 29.6740 28.5280
63 1 0.0 21.2870 12.1620 3.7470
64 1 0.0 21.5280 13.8440 4.7340
65 1 0.0 15.3870 1.5670 9.3910
66 1 0.0 14.3560 2.8260 8.2890
67 1 0.0 8.3370 33.6380 10.4000
68 1 0.0 7.4740 31.8830 10.2150
69 1 0.0 21.9790 1.1280 13.8650
70 1 0.0 23.1730 2.4700 14.6600
71 1 0.0 36.5780 37.7510 33.4010
72 1 0.0 36.2500 35.8150 33.3500
73 1 0.0 5.6570 35.7500 3.2830
74 1 0.0 3.8340 35.0680 3.5510
75 1 0.0 24.2100 6.2290 2.8360
76 1 0.0 23.0250 4.7070 2.4630
77 1 0.0 6.0410 1.8650 36.8470
78 1 0.0 6.9940 3.5790 36.7290
79 1 0.0 15.2130 8.8940 0.9560
80 1 0.0 15.2350 7.5110 2.3510
81 1 0.0 19.7610 15.1110 22.7710
82 1 0.0 19.9170 17.0180 22.3280
83 1 0.0 7.6030 19.1640 7.1340
84 1 0.0 8.8880 19.6250 5.7220
85 1 0.0 6.1670 36.4850 20.6890
86 1 0.0 4.2970 35.9110 20.5070
87 1 0.0 18.0010 3.8500 15.9020
88 1 0.0 19.4430 4.7150 14.8870
89 1 0.0 18.0710 21.9840 35.3510
90 1 0.0 19.8500 22.0400 34.5200
91 1 0.0 31.3050 29.8510 26.5730
92 1 0.0 30.4830 29.9880 28.3520
93 1 0.0 26.1540 28.0530 23.0020
94 1 0.0 25.2230 29.7310 23.4180
95 1 0.0 32.3880 22.4970 34.3350
96 1 0.0 34.2450 22.4670 34.9750
97 1 0.0 31.1980 3.3320 6.3130
98 1 0.0 32.5850 3.0800 4.9450
99 1 0.0 7.0130 2.9350 1.3490
100 1 0.0 8.0550 4.6000 1.4120
101 1 0.0 31.3230 36.8700 9.7970
102 1 0.0 33.0660 35.9920 10.0240
103 1 0.0 23.7060 27.0810 0.7040
104 1 0.0 21.8580 27.3310 0.0860
105 1 0.0 28.9360 26.6990 6.1700
106 1 0.0 27.4400 25.4950 5.7580
107 1 0.0 14.2400 1.1330 15.1780
108 1 0.0 12.7110 2.0680 14.3730
109 1 0.0 40.0030 29.4800 13.1010
110 1 0.0 38.8590 31.0610 13.3320
111 1 0.0 5.7490 10.5180 23.4630
112 1 0.0 3.9870 10.8650 24.2590
113 1 0.0 26.5850 39.1720 20.0310
114 1 0.0 27.2550 38.0190 21.4740
115 1 0.0 24.2510 4.4590 15.7070
116 1 0.0 22.9790 5.7990 15.0390
117 1 0.0 14.1590 16.3040 17.4170
118 1 0.0 15.9430 16.6810 18.1500
119 1 0.0 9.4010 33.0970 14.7250
120 1 0.0 11.1920 32.3300 14.4760
121 1 0.0 19.7510 2.2540 19.1860
122 1 0.0 18.0930 2.8840 20.0320
123 1 0.0 27.0290 36.2400 4.2390
124 1 0.0 27.5640 37.8590 5.2150
125 1 0.0 3.2130 18.8250 18.3160
126 1 0.0 4.9100 17.8420 18.4380
127 1 0.0 0.5010 17.9700 7.1140
128 1 0.0 1.1080 19.8340 7.2430
129 1 0.0 34.9660 18.4760 20.8390
130 1 0.0 33.0520 18.3720 21.2720
131 1 0.0 6.4680 22.8000 18.8760
132 1 0.0 5.3560 23.1970 17.3060
133 1 0.0 21.8150 23.0280 7.4770
134 1 0.0 23.7300 22.6290 7.2930
135 1 0.0 23.6320 22.1220 28.8120
136 1 0.0 22.0170 21.0110 28.9360
137 1 0.0 16.8640 37.2300 37.8630
138 1 0.0 16.9620 39.0760 37.2000
139 1 0.0 24.9620 12.5770 12.0250
140 1 0.0 26.6590 13.5650 12.0410
141 1 0.0 17.1650 37.0210 25.9220
142 1 0.0 17.4050 37.5430 24.0440
143 1 0.0 6.0120 8.8020 3.2510
144 1 0.0 6.1220 10.7340 3.5890
145 1 0.0 0.4650 27.7160 24.6990
146 1 0.0 0.2680 25.7810 24.4270
147 1 0.0 14.9980 15.3510 15.4930
148 1 0.0 16.8620 15.9030 15.2140
149 1 0.0 27.8810 26.8190 15.6250
150 1 0.0 28.1180 25.0400 16.4230
151 1 0.0 6.2710 15.3240 9.5050
152 1 0.0 5.7980 17.0970 8.8030
153 1 0.0 18.8310 25.1350 2.7980
154 1 0.0 20.4850 24.1680 3.2310
155 1 0.0 15.9940 27.9740 6.4900
156 1 0.0 14.9930 27.6360 8.1460
157 1 0.0 12.4340 10.6100 37.0990
158 1 0.0 13.4960 12.1890 37.5870
159 1 0.0 24.1660 23.8630 12.8790
160 1 0.0 23.7580 24.3410 14.7400
161 1 0.0 1.6150 11.7530 30.0760
162 1 0.0 3.3120 12.3920 30.8310
163 1 0.0 6.0220 13.5210 32.5500
164 1 0.0 4.4720 14.5870 31.9850
165 1 0.0 29.2300 29.7590 9.5250
166 1 0.0 29.5560 27.9050 10.0860
167 1 0.0 5.3020 15.7990 17.5620
168 1 0.0 7.0390 15.3560 16.7600
169 1 0.0 32.1200 9.0230 26.4540
170 1 0.0 33.0230 7.3820 25.8630
171 1 0.0 14.9370 33.7430 39.4590
172 1 0.0 15.7680 35.2690 38.5430
173 1 0.0 21.8830 32.3370 14.3950
174 1 0.0 20.7360 32.4280 15.9870
175 1 0.0 27.3360 17.4310 31.0080
176 1 0.0 25.4520 16.8760 31.0480
177 1 0.0 18.7650 27.2760 9.7100
178 1 0.0 18.9900 27.4940 7.7710
179 1 0.0 11.3340 30.3120 6.0610
180 1 0.0 10.4980 29.4520 4.5050
181 1 0.0 23.6780 34.5330 3.0170
182 1 0.0 24.2250 36.1090 1.9800
183 1 0.0 8.9820 24.4580 24.0830
184 1 0.0 9.4760 26.1900 23.2990
185 1 0.0 36.3310 12.6720 29.9770
186 1 0.0 36.3850 14.5290 30.6150
187 1 0.0 34.6620 29.4220 36.8610
188 1 0.0 33.3380 28.4190 37.9080
189 1 0.0 6.0910 9.1040 8.7060
190 1 0.0 7.7310 8.6790 9.7000
191 1 0.0 38.9120 28.3630 22.2590
192 1 0.0 38.9030 30.0860 21.3170
193 1 0.0 17.7210 2.9850 3.2190
194 1 0.0 18.9320 4.2290 2.3000
195 1 0.0 24.5110 37.4380 14.8160
196 1 0.0 24.0670 35.9610 13.6000
197 1 0.0 21.1300 10.7840 12.1720
198 1 0.0 22.1430 12.3380 11.5260
199 1 0.0 3.2990 31.0420 6.9900
200 1 0.0 2.2780 31.0810 8.6680
201 1 0.0 8.3530 28.0370 35.0990
202 1 0.0 9.0980 26.6300 33.9490
203 1 0.0 28.1740 30.1840 1.6910
204 1 0.0 27.2010 29.6180 0.0820
205 1 0.0 37.8680 24.1880 23.1190
206 1 0.0 37.0540 25.9720 23.2220
207 1 0.0 32.6880 15.6860 24.6640
208 1 0.0 34.5090 16.4200 24.6150
209 1 0.0 10.7770 12.9830 8.3880
210 1 0.0 8.8890 13.4980 8.2200
211 1 0.0 36.4820 32.9090 26.5300
212 1 0.0 37.4970 34.5740 26.7690
213 1 0.0 14.5410 9.7470 12.9980
214 1 0.0 15.5110 9.8360 14.7030
215 1 0.0 23.2880 16.6440 24.9620
216 1 0.0 24.1190 17.2500 26.6350
217 1 0.0 8.9490 5.4660 36.6160
218 1 0.0 9.1960 7.2290 37.4460
219 1 0.0 29.1330 1.4510 28.8920
220 1 0.0 29.2240 3.3910 29.1850
221 1 0.0 4.5040 31.9800 36.1180
222 1 0.0 6.3860 31.5490 36.4780
223 1 0.0 13.0260 18.0800 19.0560
224 1 0.0 12.8060 20.0230 18.8630
225 1 0.0 18.3350 16.5340 34.4090
226 1 0.0 19.5980 15.1430 34.9820
227 1 0.0 8.7180 18.6960 29.1460
228 1 0.0 7.7260 18.7470 30.8410
229 1 0.0 2.5570 15.1010 11.0300
230 1 0.0 4.4540 14.7840 10.6290
231 1 0.0 9.3290 5.0670 5.3420
232 1 0.0 8.4040 6.0160 6.7920
233 1 0.0 38.9360 0.0840 35.0100
234 1 0.0 39.2930 -0.0090 36.9390
235 1 0.0 6.0560 18.4200 12.9980
236 1 0.0 7.8250 19.2580 13.1650
237 1 0.0 4.7730 10.2360 17.7780
238 1 0.0 3.0590 9.2770 17.8340
239 1 0.0 32.7190 29.8520 1.8460
240 1 0.0 34.3660 28.9210 2.3760
241 1 0.0 24.1530 10.5240 20.1920
242 1 0.0 23.3580 9.0030 19.2350
243 1 0.0 17.0560 20.9020 18.6900
244 1 0.0 18.2700 20.4920 17.2010
245 1 0.0 29.9260 0.2610 35.0300
246 1 0.0 31.6080 0.3790 34.0230
247 1 0.0 12.5750 14.6430 24.4500
248 1 0.0 12.1130 14.6020 26.3590
249 1 0.0 3.2790 7.1230 10.6900
250 1 0.0 5.1490 7.5860 11.0720
251 1 0.0 9.8490 21.4960 31.0420
252 1 0.0 10.4690 19.6410 31.2270
253 1 0.0 7.6680 19.8120 10.1070
254 1 0.0 7.5400 21.5640 9.2270
255 1 0.0 10.1880 4.9080 21.4930
256 1 0.0 10.9440 3.1560 21.9610
257 1 0.0 5.9330 38.2470 32.1950
258 1 0.0 5.8450 36.2860 32.2870
259 1 0.0 15.9070 14.4290 23.1130
260 1 0.0 14.9720 16.1280 22.8040
261 1 0.0 36.4630 15.0110 34.7970
262 1 0.0 35.7560 15.6320 33.0720
263 1 0.0 10.7620 35.6580 5.7040
264 1 0.0 8.9100 36.2900 5.8710
265 1 0.0 2.0740 38.2620 2.1360
266 1 0.0 3.2990 36.7280 2.0870
267 1 0.0 3.1620 1.0160 37.5570
268 1 0.0 1.7320 0.8770 38.8970
269 1 0.0 28.8440 28.8750 25.5210
270 1 0.0 28.1620 28.3050 27.2720
271 1 0.0 32.5830 25.2290 34.5840
272 1 0.0 30.6500 25.5120 34.3810
273 1 0.0 12.2600 13.3570 10.2380
274 1 0.0 10.6870 14.5220 10.0720
275 1 0.0 27.4400 27.2190 24.7730
276 1 0.0 26.5350 28.9220 25.1430
277 1 0.0 38.6150 23.3330 11.3350
278 1 0.0 38.4370 24.9540 12.4300
279 1 0.0 38.0290 1.9570 4.3540
280 1 0.0 36.4990 3.1880 4.3100
281 1 0.0 30.6790 35.1740 7.2490
282 1 0.0 31.2260 33.3150 7.5740
283 1 0.0 21.7110 29.5510 0.3710
284 1 0.0 20.0340 30.5020 -0.0040
285 1 0.0 21.7290 37.2950 32.6310
286 1 0.0 20.0970 36.2050 32.7190
287 1 0.0 14.2020 26.7670 23.0520
288 1 0.0 16.1050 26.3090 22.8780
289 1 0.0 3.8890 34.2300 12.3530
290 1 0.0 3.5850 34.8080 14.2060
291 1 0.0 12.2890 26.3390 19.1200
292 1 0.0 12.7600 24.4480 19.3650
293 1 0.0 7.1470 24.5810 1.4850
294 1 0.0 8.6250 23.6480 2.3830
295 1 0.0 37.6300 8.5010 25.0220
296 1 0.0 36.4160 7.5990 23.7690
297 1 0.0 12.3990 24.1510 13.7470
298 1 0.0 11.4850 25.4920 14.8550
299 1 0.0 12.3020 2.3070 11.2600
300 1 0.0 11.3400 3.9050 11.8760
301 1 0.0 37.7090 31.1630 22.9390
302 1 0.0 36.3340 32.3430 23.6980
303 1 0.0 29.0570 11.4540 33.9980
304 1 0.0 28.8030 10.8620 32.1420
305 1 0.0 28.8220 26.3780 29.0870
306 1 0.0 28.4620 24.5740 29.7760
307 1 0.0 36.8580 15.9450 28.5440
308 1 0.0 35.1470 16.7810 28.0630
309 1 0.0 30.5200 34.4190 9.3860
310 1 0.0 30.3520 32.6620 10.2480
311 1 0.0 17.5410 22.7480 12.3290
312 1 0.0 18.4170 23.0420 14.0620
313 1 0.0 1.2910 26.5540 1.0380
314 1 0.0 0.0960 25.1410 0.3790
315 1 0.0 21.0220 6.0430 -0.0250
316 1 0.0 21.0640 6.0720 1.9380
317 1 0.0 25.7590 2.0530 27.6260
318 1 0.0 26.9420 3.6010 27.3740
319 1 0.0 4.1750 23.4190 39.9350
320 1 0.0 6.0320 24.0570 40.0100
321 1 0.0 32.0860 2.2680 28.5530
322 1 0.0 33.3420 3.0250 29.8600
323 1 0.0 4.2170 10.7250 -0.0020
324 1 0.0 5.7630 11.7470 0.6490
325 1 0.0 20.2540 35.9940 19.2810
326 1 0.0 18.9910 34.4950 19.4100
327 1 0.0 28.3670 18.5740 32.6390
328 1 0.0 30.1550 18.4830 31.8300
329 1 0.0 17.6090 35.8040 21.8600
330 1 0.0 16.7000 35.0520 23.4310
331 1 0.0 39.1400 29.3040 7.3680
332 1 0.0 37.2710 29.0850 7.9310
333 1 0.0 5.2930 31.6310 12.3350
334 1 0.0 4.3030 30.8550 13.8440
335 1 0.0 2.4400 1.6640 15.9160
336 1 0.0 3.4130 3.3480 15.6360
337 1 0.0 8.2210 9.0690 4.1160
338 1 0.0 8.1460 10.3380 2.6190
339 1 0.0 30.0670 14.8830 29.6480
340 1 0.0 30.0450 16.7610 30.2250
341 1 0.0 6.6800 9.8700 25.3530
342 1 0.0 6.1800 11.5850 26.1700
343 1 0.0 16.9440 25.6050 26.0600
344 1 0.0 15.6140 27.0450 25.9460
345 1 0.0 14.4640 34.7240 24.3630
346 1 0.0 14.2250 35.1610 26.2630
347 1 0.0 8.8130 22.4270 4.8750
348 1 0.0 8.7830 24.3660 4.5600
349 1 0.0 24.1530 6.5140 24.0940
350 1 0.0 23.3280 4.7460 24.3210
351 1 0.0 36.4090 38.0740 25.7850
352 1 0.0 36.5890 36.2600 25.0540
353 1 0.0 21.2750 9.5060 15.0670
354 1 0.0 19.4910 10.2110 15.4910
355 1 0.0 12.6310 6.6200 20.1320
356 1 0.0 11.4620 8.1920 19.9890
357 1 0.0 19.9690 23.6720 6.0960
358 1 0.0 19.5550 21.9330 5.2810
359 1 0.0 15.1210 20.2160 26.6120
360 1 0.0 13.8340 18.7350 26.6930
361 1 0.0 0.9960 28.6820 27.0290
362 1 0.0 -0.0000 27.1680 27.7870
363 1 0.0 13.0270 20.3840 29.5640
364 1 0.0 11.3890 21.4270 29.2640
365 1 0.0 3.3140 34.3490 23.9240
366 1 0.0 4.8780 35.4590 23.5030
367 1 0.0 7.4140 9.9760 20.9400
368 1 0.0 7.5030 11.9370 20.8800
369 1 0.0 30.4650 8.7850 16.5290
370 1 0.0 31.1790 6.9550 16.5280
371 1 0.0 1.7310 25.8290 38.5880
372 1 0.0 3.3500 25.8870 39.6980
373 1 0.0 19.6100 20.7200 36.7250
374 1 0.0 21.1840 20.5150 35.5670
375 1 0.0 24.2490 22.2290 1.2350
376 1 0.0 22.6430 21.1950 0.7750
377 1 0.0 19.3840 10.2760 26.8280
378 1 0.0 19.5590 9.8570 28.7390
379 1 0.0 9.2040 2.9760 38.8520
380 1 0.0 7.7280 2.4000 40.0120
381 1 0.0 27.4770 17.0540 28.2680
382 1 0.0 29.0410 15.9880 27.7410
383 1 0.0 25.5000 11.8460 39.6720
384 1 0.0 26.0730 10.4640 38.3990
385 1 0.0 24.8380 11.1670 8.0400
386 1 0.0 24.9010 13.1310 8.0540
387 1 0.0 2.0900 29.6100 2.8920
388 1 0.0 2.8850 27.8260 3.1030
389 1 0.0 13.5210 20.0440 3.3930
390 1 0.0 13.3030 18.9190 1.7980
391 1 0.0 17.0070 5.7890 15.5760
392 1 0.0 17.0200 7.7460 15.7510
393 1 0.0 3.7810 29.2120 -0.0460
394 1 0.0 4.1420 30.1900 1.6190
395 1 0.0 16.1770 21.9610 37.1660
396 1 0.0 15.8660 23.0480 35.5600
397 1 0.0 14.0280 36.0740 7.9040
398 1 0.0 15.1950 37.6400 7.6960
399 1 0.0 23.1950 35.3790 36.6990
400 1 0.0 22.4970 33.5480 36.5600
401 1 0.0 39.8330 1.3090 15.4660
402 1 0.0 38.7310 2.9080 15.7650
403 1 0.0 29.2010 34.0410 36.0280
404 1 0.0 30.3840 32.4850 36.2190
405 1 0.0 33.8690 4.7940 13.3210
406 1 0.0 33.1160 5.2240 15.0840
407 1 0.0 7.6170 24.9910 21.6770
408 1 0.0 8.9550 26.2390 20.9620
409 1 0.0 38.5440 34.0190 24.8540
410 1 0.0 37.3460 34.3220 23.3270
411 1 0.0 10.9120 32.0970 32.9490
412 1 0.0 10.6660 34.0440 33.0270
413 1 0.0 29.0930 32.7650 7.0760
414 1 0.0 30.2950 31.2230 6.8880
415 1 0.0 26.1530 19.4110 32.7120
416 1 0.0 24.3790 18.6000 32.9450
417 1 0.0 4.9640 7.9810 29.7710
418 1 0.0 5.1510 6.4230 28.5900
419 1 0.0 35.0330 23.9700 32.3200
420 1 0.0 33.4770 24.4710 31.2310
421 1 0.0 23.7340 5.6610 32.1060
422 1 0.0 25.2810 6.0290 30.9520
423 1 0.0 14.2540 5.2780 15.6660
424 1 0.0 15.2130 6.7400 16.5600
425 1 0.0 35.0780 21.3250 1.6120
426 1 0.0 34.3020 20.5400 -0.0130
427 1 0.0 27.9390 31.1070 8.2470
428 1 0.0 27.7460 31.6620 10.1220
429 1 0.0 7.3420 -0.0010 39.1230
430 1 0.0 7.7200 -0.0070 37.1960
431 1 0.0 23.4870 20.8170 23.0100
432 1 0.0 25.2960 20.2340 22.5130
433 1 0.0 25.2930 23.2240 30.4390
434 1 0.0 23.4750 22.8890 31.1020
435 1 0.0 35.1690 5.8390 16.8880
436 1 0.0 33.8760 7.3180 16.8810
437 1 0.0 21.6450 22.9400 10.0550
438 1 0.0 22.4850 21.7500 11.3730
439 1 0.0 32.0740 26.3170 20.5160
440 1 0.0 31.2640 26.2910 22.3050
441 1 0.0 16.7960 4.8190 -0.0260
442 1 0.0 15.0260 3.9870 0.1630
443 1 0.0 20.8960 14.6410 17.9890
444 1 0.0 19.0810 14.0330 17.5460
445 1 0.0 29.6860 1.4470 9.1320
446 1 0.0 28.1840 0.1950 9.3210
447 1 0.0 8.7930 1.0930 5.5630
448 1 0.0 9.8310 -0.0080 6.8160
449 1 0.0 31.3490 0.9880 26.7150
450 1 0.0 32.0460 0.0220 28.2770
451 1 0.0 19.8510 25.2340 0.4040
452 1 0.0 20.8060 26.2370 1.7980
453 1 0.0 37.9420 14.6560 7.6500
454 1 0.0 39.0060 15.0200 9.2610
455 1 0.0 8.7530 29.3100 14.9000
456 1 0.0 10.6400 29.1360 14.3850
457 1 0.0 18.1190 17.4360 0.1130
458 1 0.0 19.6390 16.9270 1.2480
459 1 0.0 1.9330 26.1440 30.8470
460 1 0.0 0.0900 25.5010 30.6280
461 1 0.0 0.7910 24.3170 2.4220
462 1 0.0 1.4550 25.8230 3.4950
463 1 0.0 39.8680 24.6700 34.9550
464 1 0.0 40.0030 23.0140 36.0020
465 1 0.0 5.6620 22.0460 25.1500
466 1 0.0 6.1970 20.8450 26.6090
467 1 0.0 26.0730 27.1250 20.3030
468 1 0.0 27.1630 25.4940 20.4050
469 1 0.0 34.3750 29.0850 6.7330
470 1 0.0 34.2950 30.7780 7.7260
471 1 0.0 36.0250 9.3780 26.3890
472 1 0.0 35.6460 7.8570 27.5730
473 1 0.0 4.8770 0.6630 18.3060
474 1 0.0 6.1930 2.0860 18.6270
475 1 0.0 33.1880 21.3680 22.6650
476 1 0.0 35.1250 21.1240 22.8810
477 1 0.0 31.3120 22.4690 39.1240
478 1 0.0 32.5850 23.8680 39.6510
479 1 0.0 4.6650 18.9630 20.6270
480 1 0.0 2.7790 19.1870 21.1310
481 1 0.0 22.4580 24.5340 19.5110
482 1 0.0 21.0930 23.1440 19.7610
483 1 0.0 22.1900 25.5700 23.4510
484 1 0.0 23.8160 26.6170 23.7950
485 1 0.0 4.5110 13.6880 13.5380
486 1 0.0 2.8070 12.7150 13.6280
487 1 0.0 2.6400 39.0140 0.0410
488 1 0.0 4.3600 39.3820 0.9150
489 1 0.0 17.8910 2.7050 17.8210
490 1 0.0 19.0450 4.2940 17.8200
491 1 0.0 2.5400 13.0720 1.1030
492 1 0.0 1.4400 11.7940 2.1110
493 1 0.0 29.0210 2.3340 2.4370
494 1 0.0 30.4120 0.9620 2.2390
495 1 0.0 12.5110 31.0030 23.3830
496 1 0.0 13.6320 32.0860 24.5790
497 1 0.0 12.2080 11.3800 6.0680
498 1 0.0 13.2750 9.7320 6.0180
499 1 0.0 16.5230 30.7170 40.0250
500 1 0.0 18.0490 31.9340 39.8070
501 1 0.0 15.9010 22.5380 32.1580
502 1 0.0 14.3280 23.4500 32.9000
503 1 0.0 19.0000 26.7580 12.3560
504 1 0.0 20.1660 25.1970 12.6080
505 1 0.0 19.7250 1.1730 13.1240
506 1 0.0 20.5410 2.9580 13.0650
507 1 0.0 32.7410 23.9040 11.0590
508 1 0.0 32.5400 25.8020 11.5260
509 1 0.0 4.3260 2.3620 7.6380
510 1 0.0 6.0310 2.2520 8.6070
511 1 0.0 2.0040 28.1510 23.1130
512 1 0.0 2.5350 26.2610 23.1760
513 1 0.0 7.5820 14.8650 14.4170
514 1 0.0 5.9650 15.9750 14.5270
515 1 0.0 5.0360 22.9730 6.5380
516 1 0.0 3.8510 21.5270 5.9370
517 1 0.0 16.5400 7.6760 28.5370
518 1 0.0 17.1800 6.2950 27.2960
519 1 0.0 16.2880 6.1490 4.8960
520 1 0.0 17.1430 4.3930 5.1090
521 1 0.0 22.5010 30.6660 39.9450
522 1 0.0 24.0380 30.4880 38.7350
523 1 0.0 36.3240 33.2250 14.6140
524 1 0.0 37.1490 31.5910 15.3250
525 1 0.0 5.6470 20.6530 19.1190
526 1 0.0 5.2520 21.8210 20.6480
527 1 0.0 24.9040 21.3520 31.8920
528 1 0.0 24.9220 22.9340 33.0560
529 1 0.0 1.1670 13.3170 33.0090
530 1 0.0 0.4340 15.1330 32.8560
531 1 0.0 35.8700 38.5650 7.7190
532 1 0.0 34.2180 39.2840 6.9370
533 1 0.0 30.6590 30.0950 -0.0050
534 1 0.0 29.0180 31.1720 -0.0680
535 1 0.0 16.8290 36.5130 28.7770
536 1 0.0 18.0810 35.6780 27.5140
537 1 0.0 17.7780 12.1040 0.4550
538 1 0.0 16.1170 13.1360 0.6430
539 1 0.0 40.0010 32.8980 13.8100
540 1 0.0 40.0010 32.5710 11.8730
541 1 0.0 26.6940 19.1410 5.0590
542 1 0.0 26.7400 20.0290 3.3080
543 1 0.0 8.2000 28.1660 22.6900
544 1 0.0 6.3520 27.5560 22.9600
545 1 0.0 6.3070 32.3500 2.4950
546 1 0.0 4.5020 33.1240 2.4650
547 1 0.0 36.5360 32.6460 10.4520
548 1 0.0 36.0060 31.2270 11.7040
549 1 0.0 20.4960 8.4220 32.1690
550 1 0.0 20.6990 7.6000 33.9420
551 1 0.0 28.7300 4.0840 14.4960
552 1 0.0 30.6350 3.7030 14.7870
553 1 0.0 12.2210 18.2700 16.8430
554 1 0.0 13.4470 19.7910 16.6410
555 1 0.0 26.6220 20.8980 29.3480
556 1 0.0 25.9340 22.5040 28.4490
557 1 0.0 26.2640 23.9790 15.3960
558 1 0.0 25.7820 22.0920 15.6530
559 1 0.0 34.5720 25.3620 23.5120
560 1 0.0 34.2930 23.7380 22.4420
561 1 0.0 5.7270 12.5010 28.5040
562 1 0.0 5.4350 13.9000 29.8520
563 1 0.0 6.4790 37.2740 4.9660
564 1 0.0 7.9460 36.6020 3.8470
565 1 0.0 24.1300 28.6750 30.1350
566 1 0.0 25.5840 27.8860 29.0760
567 1 0.0 12.7360 4.7360 40.0010
568 1 0.0 11.1620 4.0900 39.0190
569 1 0.0 13.7790 5.9950 11.9720
570 1 0.0 14.0300 6.5700 10.1100
571 1 0.0 12.9340 5.4910 22.1400
572 1 0.0 13.8670 5.8170 23.8370
573 1 0.0 25.5630 37.0480 8.7220
574 1 0.0 25.0710 35.3130 9.5020
575 1 0.0 2.0490 3.8410 1.6740
576 1 0.0 2.9910 3.6190 -0.0350
577 1 0.0 22.6580 37.5660 11.4990
578 1 0.0 23.5530 36.9470 9.8630
579 1 0.0 5.5370 37.6790 25.3480
580 1 0.0 4.9260 36.3120 26.6200
581 1 0.0 36.4160 21.5310 16.3230
582 1 0.0 37.3830 20.1790 15.2760
583 1 0.0 0.5870 7.2650 27.9040
584 1 0.0 0.5860 8.5220 26.3950
585 1 0.0 11.9200 29.5710 36.9610
586 1 0.0 13.3480 30.5840 36.0700
587 1 0.0 21.7140 12.0720 39.2500
588 1 0.0 20.9110 12.8220 37.6210
589 1 0.0 12.7150 30.8990 33.4130
590 1 0.0 14.1600 30.6820 32.1010
591 1 0.0 32.3350 3.8450 23.7830
592 1 0.0 30.9410 2.5370 24.2400
593 1 0.0 33.5720 17.4100 30.3230
594 1 0.0 33.8270 18.8230 28.9830
595 1 0.0 21.8150 9.8390 1.6830
596 1 0.0 23.7160 10.2140 2.0060
597 1 0.0 36.8480 27.5110 14.9140
598 1 0.0 37.4780 26.9380 13.1440
599 1 0.0 15.0790 19.4040 20.2600
600 1 0.0 14.8000 17.6530 21.1060
601 1 0.0 -0.0040 20.0750 0.3150
602 1 0.0 1.6110 19.0050 -0.0070
603 1 0.0 22.2730 2.3210 34.1230
604 1 0.0 24.1670 2.8350 34.2080
605 1 0.0 23.1360 32.1810 2.7220
606 1 0.0 23.3050 30.3210 2.1140
607 1 0.0 10.8860 17.3470 28.2450
608 1 0.0 11.1580 19.2530 28.6330
609 1 0.0 26.4140 8.2460 2.7200
610 1 0.0 26.0100 7.9110 0.8270
611 1 0.0 28.1650 9.5000 7.7020
612 1 0.0 28.7300 7.6570 7.3240
613 1 0.0 27.4400 11.2270 13.6890
614 1 0.0 25.9650 12.4350 14.1600
615 1 0.0 16.6930 25.1330 16.5190
616 1 0.0 17.6790 26.5270 15.5470
617 1 0.0 17.8770 15.0800 1.8470
618 1 0.0 19.6540 14.9030 2.6660
619 1 0.0 16.9600 37.4130 0.5030
620 1 0.0 18.2390 35.9490 0.2210
621 1 0.0 36.5730 13.3330 6.5000
622 1 0.0 35.2620 13.7750 5.1060
623 1 0.0 34.4390 33.4780 1.2280
624 1 0.0 34.2400 31.5270 1.1160
625 1 0.0 0.1860 10.2890 18.0720
626 1 0.0 0.9170 11.9170 17.2510
627 1 0.0 7.8990 36.0950 10.4860
628 1 0.0 6.6650 35.0160 11.5670
629 1 0.0 6.5690 27.7170 19.6800
630 1 0.0 6.8780 25.7900 19.4530
631 1 0.0 25.3480 8.3130 9.4210
632 1 0.0 24.6730 6.5120 9.8170
633 1 0.0 23.5400 34.3670 25.3310
634 1 0.0 23.1600 32.4700 25.6730
635 1 0.0 17.8390 9.0490 37.2820
636 1 0.0 18.2920 8.8630 39.1840
637 1 0.0 20.3780 36.1390 8.7000
638 1 0.0 21.5400 37.7050 8.9390
639 1 0.0 24.1500 17.8880 20.9180
640 1 0.0 25.8460 18.8740 20.8350
641 1 0.0 19.8700 18.1860 4.1360
642 1 0.0 18.0600 18.9110 3.9010
643 1 0.0 12.2780 8.0690 32.0260
644 1 0.0 10.3930 7.7800 31.5540
645 1 0.0 30.7950 11.0500 0.7950
646 1 0.0 30.4430 12.9690 1.0220
647 1 0.0 15.3490 11.9330 13.5810
648 1 0.0 16.9740 12.4910 14.5330
649 1 0.0 33.9930 35.9000 6.3600
650 1 0.0 32.6710 36.4710 7.6960
651 1 0.0 6.1880 18.0170 3.9620
652 1 0.0 6.2690 16.0540 3.9160
653 1 0.0 1.8660 1.8010 6.8260
654 1 0.0 3.0460 0.2480 6.5890
655 1 0.0 23.5470 31.0010 29.5760
656 1 0.0 23.3670 30.8790 27.6230
657 1 0.0 5.8300 4.5670 11.9140
658 1 0.0 7.5880 4.8980 11.1020
659 1 0.0 12.5370 29.1800 32.0350
660 1 0.0 12.7110 27.2330 32.2300
661 1 0.0 8.1880 7.2940 11.5420
662 1 0.0 10.1480 7.2510 11.4100
663 1 0.0 21.2210 2.5170 3.0740
664 1 0.0 20.7770 1.9940 1.2330
665 1 0.0 32.6350 20.5860 16.1080
666 1 0.0 34.1180 21.8560 15.8900
667 1 0.0 37.9340 31.9420 1.6120
668 1 0.0 39.7010 31.8520 2.4650
669 1 0.0 18.8380 17.7360 25.6510
670 1 0.0 18.9160 19.6980 25.7160
671 1 0.0 8.9040 22.1440 27.3820
672 1 0.0 10.7650 22.7480 27.5550
673 1 0.0 25.4400 30.1340 1.6480
674 1 0.0 25.2720 28.1980 1.9290
675 1 0.0 31.6490 33.1120 1.1380
676 1 0.0 30.2230 31.8490 1.6170
677 1 0.0 16.6270 35.2840 35.6880
678 1 0.0 14.6860 35.1280 35.4270
679 1 0.0 32.1830 21.3540 30.1440
680 1 0.0 33.7370 22.5550 30.1590
681 1 0.0 25.1040 35.6160 39.2390
682 1 0.0 26.1000 37.3070 39.1580
683 1 0.0 7.1830 19.3780 20.5240
684 1 0.0 7.1050 19.2160 22.4800
685 1 0.0 35.0120 31.6900 27.8090
686 1 0.0 34.2440 32.3460 26.1240
687 1 0.0 29.1530 8.7260 13.9260
688 1 0.0 29.7650 7.0110 14.6640
689 1 0.0 24.9800 34.6680 23.4120
690 1 0.0 26.4490 34.8560 22.1210
691 1 0.0 34.9500 12.9820 23.9680
692 1 0.0 33.4610 12.9290 22.6880
693 1 0.0 22.6320 23.2950 17.4330
694 1 0.0 24.5890 23.1260 17.3770
695 1 0.0 35.2330 15.1620 17.4290
696 1 0.0 36.1480 13.7740 16.3810
697 1 0.0 8.5980 13.1600 17.5430
698 1 0.0 10.4840 13.3650 17.0350
699 1 0.0 9.2780 15.1330 24.3250
700 1 0.0 9.6030 15.0280 26.2600
701 1 0.0 31.9020 29.0730 33.6740
702 1 0.0 33.7080 29.5910 33.1010
703 1 0.0 10.2470 11.6980 28.8830
704 1 0.0 10.6920 13.5460 28.3900
705 1 0.0 5.4830 31.6110 7.8690
706 1 0.0 5.1760 29.6880 8.1290
707 1 0.0 4.8830 30.4020 32.0240
708 1 0.0 6.7890 30.4770 31.5540
709 1 0.0 2.1500 38.6370 10.0160
710 1 0.0 2.9540 37.1710 8.9850
711 1 0.0 34.8520 14.5970 28.1820
712 1 0.0 34.0420 13.4380 29.5460
713 1 0.0 37.5950 33.5930 12.2060
714 1 0.0 35.8050 34.3920 12.0850
715 1 0.0 10.2330 39.4290 1.3860
716 1 0.0 8.8430 39.3180 2.7690
717 1 0.0 4.3480 38.6910 6.1690
718 1 0.0 5.8080 40.0050 6.1470
719 1 0.0 35.8830 9.7320 11.5420
720 1 0.0 37.8080 9.9520 11.2220
721 1 0.0 26.2110 10.9730 23.0470
722 1 0.0 26.2400 9.0120 23.1460
723 1 0.0 39.7800 9.1260 24.9230
724 1 0.0 39.0630 10.6830 25.8820
725 1 0.0 33.1390 28.6060 21.6810
726 1 0.0 34.9650 28.1010 22.2010
727 1 0.0 23.6100 27.1290 9.1090
728 1 0.0 22.2400 28.5340 9.1980
729 1 0.0 33.1510 19.0020 8.5270
730 1 0.0 35.0220 19.5400 8.7850
731 1 0.0 13.1010 38.0990 32.1360
732 1 0.0 14.9240 38.7210 31.7510
733 1 0.0 16.7650 29.4120 1.1190
734 1 0.0 18.4710 28.4410 1.1700
735 1 0.0 5.3200 1.5220 25.9560
736 1 0.0 5.2060 1.3560 24.0020
737 1 0.0 19.1280 38.4460 28.1300
738 1 0.0 19.9350 36.6570 28.1980
739 1 0.0 36.2590 22.8310 27.2040
740 1 0.0 37.8140 23.8810 26.6220
741 1 0.0 15.5900 5.1940 36.2860
742 1 0.0 16.8890 4.7400 37.6880
743 1 0.0 19.2000 27.0010 4.2430
744 1 0.0 17.4500 26.9270 3.3550
745 1 0.0 24.7720 0.1140 34.3710
746 1 0.0 25.9600 0.1140 35.9360
747 1 0.0 12.0150 37.4440 18.1590
748 1 0.0 11.6860 35.6860 18.9710
749 1 0.0 17.2680 15.8670 24.9590
750 1 0.0 15.6600 16.9940 24.9220
751 1 0.0 9.8540 22.9860 17.3840
752 1 0.0 8.9220 21.9260 16.0180
2 2 0.0 33.2160 21.5750 7.3490
754 2 0.0 34.2080 22.2510 7.3220
3 3 0.0 32.3350 20.9750 7.3720
756 3 0.0 35.0880 22.8500 7.2990
757 2 0.0 19.9010 33.4480 39.7710
758 2 0.0 18.8310 33.9820 39.6590
759 3 0.0 20.8500 32.9740 39.8700
760 3 0.0 17.8820 34.4560 39.5600
761 2 0.0 23.3270 26.1120 20.9230
762 2 0.0 24.1800 25.2860 21.1000
763 3 0.0 22.5690 26.8440 20.7660
764 3 0.0 24.9380 24.5540 21.2570
765 2 0.0 6.7180 32.0680 17.8200
766 2 0.0 7.8190 32.5060 17.6300
767 3 0.0 5.7400 31.6780 17.9890
768 3 0.0 8.7960 32.8960 17.4610
769 2 0.0 27.5270 38.4020 8.3130
770 2 0.0 28.0910 37.3710 8.0660
771 3 0.0 27.0260 39.3170 8.5320
772 3 0.0 28.5910 36.4570 7.8470
773 2 0.0 25.3680 5.5410 34.3220
774 2 0.0 25.2390 6.0720 35.3910
775 3 0.0 25.4820 5.0690 33.3740
776 3 0.0 25.1260 6.5450 36.3390
777 2 0.0 30.4590 36.3700 14.4390
778 2 0.0 31.4150 36.9640 14.8570
779 3 0.0 29.6100 35.8420 14.0680
780 3 0.0 32.2630 37.4910 15.2270
781 2 0.0 15.5720 7.1750 24.8500
782 2 0.0 14.5330 7.7150 25.1160
783 3 0.0 16.4940 6.6960 24.6150
784 3 0.0 13.6110 8.1940 25.3510
785 2 0.0 10.7110 38.8910 21.1280
786 2 0.0 11.1580 37.8050 21.3760
787 3 0.0 10.3150 39.8560 20.9070
788 3 0.0 11.5540 36.8410 21.5960
789 2 0.0 32.3520 34.4170 34.1200
790 2 0.0 31.4250 35.1800 34.1030
791 3 0.0 33.1740 33.7390 34.1340
792 3 0.0 30.6030 35.8570 34.0890
793 2 0.0 12.8010 30.4910 26.0190
794 2 0.0 12.0670 31.1550 26.6990
795 3 0.0 13.4530 29.9020 25.4160
796 3 0.0 11.4160 31.7440 27.3020
797 2 0.0 22.4890 12.7550 15.7760
798 2 0.0 22.8950 12.7370 14.6460
799 3 0.0 22.1290 12.7690 16.7790
800 3 0.0 23.2540 12.7230 13.6430
801 2 0.0 19.9640 18.4320 33.3800
802 2 0.0 18.9540 19.0610 33.5390
803 3 0.0 20.8620 17.8750 33.2390
804 3 0.0 18.0570 19.6180 33.6800
805 2 0.0 4.1930 14.1890 26.7620
806 2 0.0 4.5650 14.8110 25.8050
807 3 0.0 3.8620 13.6370 27.6110
808 3 0.0 4.8960 15.3630 24.9560
809 2 0.0 34.0360 27.0620 35.3500
810 2 0.0 34.5860 26.0000 35.4510
811 3 0.0 33.5470 28.0050 35.2590
812 3 0.0 35.0750 25.0580 35.5420
813 2 0.0 30.2680 22.7510 20.9990
814 2 0.0 29.6630 22.0150 21.7300
815 3 0.0 30.8050 23.4040 20.3510
816 3 0.0 29.1260 21.3620 22.3780
817 2 0.0 24.4440 4.5170 27.7120
818 2 0.0 24.7670 5.4130 26.9810
819 3 0.0 24.1570 3.7220 28.3610
820 3 0.0 25.0540 6.2090 26.3330
821 2 0.0 6.9260 26.9860 25.1810
822 2 0.0 5.8080 27.1650 25.5790
823 3 0.0 7.9190 26.8260 24.8290
824 3 0.0 4.8150 27.3240 25.9320
825 2 0.0 27.3760 32.1170 15.3790
826 2 0.0 28.0480 32.0850 16.3740
827 3 0.0 26.7800 32.1450 14.4970
828 3 0.0 28.6450 32.0570 17.2560
829 2 0.0 6.6270 26.7400 33.4820
830 2 0.0 6.6690 25.7130 34.1030
831 3 0.0 6.5900 27.6510 32.9310
832 3 0.0 6.7060 24.8020 34.6530
833 2 0.0 27.5830 8.4720 33.3630
834 2 0.0 26.5840 9.1350 33.4180
835 3 0.0 28.4700 7.8830 33.3130
836 3 0.0 25.6980 9.7250 33.4670
837 2 0.0 36.0630 20.8090 39.0710
838 2 0.0 37.2420 20.8130 39.2970
839 3 0.0 35.0170 20.8050 38.8710
840 3 0.0 38.2890 20.8170 39.4970
841 2 0.0 39.9310 33.0520 29.0610
842 2 0.0 39.9000 34.2480 28.9610
843 3 0.0 39.9580 31.9910 29.1500
844 3 0.0 39.8730 35.3100 28.8720
845 2 0.0 15.6700 30.2920 37.0540
846 2 0.0 16.0150 31.3700 37.4530
847 3 0.0 15.3640 29.3350 36.6990
848 3 0.0 16.3210 32.3270 37.8080
849 2 0.0 35.3790 39.1120 29.3880
850 2 0.0 34.7610 38.1100 29.6250
851 3 0.0 35.9270 40.0010 29.1770
852 3 0.0 34.2130 37.2210 29.8360
853 2 0.0 27.9530 12.2670 20.0730
854 2 0.0 28.3520 13.3990 20.0610
855 3 0.0 27.5990 11.2620 20.0830
856 3 0.0 28.7050 14.4040 20.0500
857 2 0.0 18.0650 4.2690 7.7130
858 2 0.0 17.7580 3.4400 8.5250
859 3 0.0 18.3370 5.0050 6.9920
860 3 0.0 17.4850 2.7050 9.2460
861 2 0.0 6.4600 33.7730 25.1850
862 2 0.0 6.4570 32.7280 24.5930
863 3 0.0 6.4620 34.6990 25.7110
864 3 0.0 6.4560 31.8020 24.0670
865 2 0.0 28.4190 29.4220 34.8320
866 2 0.0 27.2300 29.5170 34.9680
867 3 0.0 29.4750 29.3380 34.7120
868 3 0.0 26.1750 29.6010 35.0890
869 2 0.0 5.6430 10.5690 13.7170
870 2 0.0 6.4050 9.8310 13.1550
871 3 0.0 4.9660 11.2240 14.2150
872 3 0.0 7.0810 9.1750 12.6570
873 2 0.0 34.6170 11.8760 33.6610
874 2 0.0 34.3640 12.7450 32.8720
875 3 0.0 34.8420 11.1060 34.3620
876 3 0.0 34.1390 13.5150 32.1710
877 2 0.0 17.2010 24.9030 5.8890
878 2 0.0 17.0420 24.0920 5.0180
879 3 0.0 17.3410 25.6220 6.6630
880 3 0.0 16.9020 23.3730 4.2450
881 2 0.0 23.8860 10.3010 5.1040
882 2 0.0 24.6650 11.2030 5.2510
883 3 0.0 23.1940 9.5010 4.9740
884 3 0.0 25.3560 12.0030 5.3810
885 2 0.0 27.0930 31.7230 23.1260
886 2 0.0 26.5850 31.8940 22.0510
887 3 0.0 27.5440 31.5730 24.0790
888 3 0.0 26.1340 32.0450 21.0980
889 2 0.0 15.3180 25.9200 38.0830
890 2 0.0 15.4150 26.9420 38.7050
891 3 0.0 15.2320 25.0130 37.5310
892 3 0.0 15.5010 27.8490 39.2570
893 2 0.0 31.4200 18.3590 17.2080
894 2 0.0 32.3060 17.9510 17.9070
895 3 0.0 30.6320 18.7200 16.5870
896 3 0.0 33.0940 17.5900 18.5280
897 2 0.0 38.5710 8.0300 31.2740
898 2 0.0 38.0270 7.1780 30.6260
899 3 0.0 39.0550 8.7860 31.8490