#File Generate with Data Generator

100 atoms
3 atom types

0.0010 67.2070 xlo xhi
2.1280 69.4930 ylo yhi
0.0670 74.5650 zlo zhi

Masses

3 1.0000
2 12.0000
1 16.0000

Atoms

1 1 0.0 17.1670 14.8930 9.4380
2 1 0.0 17.7200 15.7710 10.0610
3 1 0.0 8.1250 4.5990 14.9430
4 1 0.0 7.5910 5.5360 14.3950
5 1 0.0 10.3680 14.6480 14.6200
6 1 0.0 10.4400 14.1810 13.5060
7 1 0.0 16.8720 8.0580 4.1190
8 1 0.0 16.9210 6.9120 4.5030
9 1 0.0 18.5230 2.1280 16.0530
10 1 0.0 18.0630 2.8120 16.9390
11 1 0.0 5.1200 13.0650 18.3510
12 1 0.0 6.1890 13.1490 18.9110
13 1 0.0 0.8700 8.6240 0.8150
14 1 0.0 0.0080 9.0860 1.5270
15 1 0.0 9.6660 17.5370 15.9520
16 1 0.0 9.0680 16.4930 16.0860
17 1 0.0 18.2440 15.6230 6.5180
18 1 0.0 18.4540 15.0170 7.5440
19 1 0.0 16.5360 17.0710 6.5750
20 1 0.0 16.0800 15.9730 6.7970
21 1 0.0 11.5020 15.5570 16.0110
22 1 0.0 10.8970 14.7500 16.6800
23 1 0.0 4.3940 13.1670 1.9560
24 1 0.0 5.4930 12.6640 2.0090
25 1 0.0 17.2920 8.7630 6.7510
26 1 0.0 18.3200 9.3980 6.8060
27 1 0.0 11.4070 9.6860 3.5910
28 1 0.0 10.2040 9.7540 3.7080
29 1 0.0 11.1700 3.2430 11.7860
30 1 0.0 10.5950 3.9620 12.5720
31 1 0.0 0.0580 5.0610 2.7140
32 1 0.0 1.2090 4.9780 3.0770
33 1 0.0 7.2920 14.9970 13.2290
34 1 0.0 6.7340 13.9950 12.8440
35 1 0.0 6.7300 10.9270 5.7280
36 1 0.0 6.1250 11.8690 6.1870
37 1 0.0 9.8130 7.4340 0.0670
38 1 0.0 9.6080 8.2450 0.9420
39 1 0.0 6.6300 7.5190 10.0740
40 1 0.0 7.3860 8.4270 9.8160
41 1 0.0 0.3520 12.1570 6.4020
42 1 0.0 1.3260 12.7950 6.0760
43 1 0.0 4.4190 14.1500 13.9820
44 1 0.0 4.6430 12.9780 14.1820
45 1 0.0 1.8940 6.7340 13.7790
46 1 0.0 1.1720 6.4490 14.7070
47 1 0.0 4.4560 3.2350 12.1700
48 1 0.0 4.8400 4.2680 11.6720
49 1 0.0 0.5930 18.4620 4.4850
50 1 0.0 0.2630 18.8960 3.4040
51 1 0.0 6.4180 17.7140 15.8330
52 1 0.0 6.7310 18.8530 16.0980
53 1 0.0 6.4310 10.0970 17.7450
54 1 0.0 5.3250 10.3980 17.3580
55 1 0.0 0.0010 8.8830 14.5960
56 1 0.0 1.0350 9.4340 14.8980
57 1 0.0 2.8460 12.1450 17.7840
58 1 0.0 3.2910 11.1560 18.3200
59 1 0.0 7.2880 16.0430 19.2870
60 1 0.0 6.5510 15.2120 19.7670
2 2 0.0 54.1070 67.7800 59.2770
62 2 0.0 53.5700 68.6870 59.8500
3 3 0.0 54.5840 66.9740 58.7680
64 3 0.0 53.0930 69.4930 60.3590
65 2 0.0 60.1810 63.6190 67.8320
66 2 0.0 59.0500 64.0200 67.7940
67 3 0.0 61.1850 63.2630 67.8660
68 3 0.0 58.0470 64.3760 67.7610
69 2 0.0 57.6620 56.1160 69.9140
70 2 0.0 58.8580 56.0180 69.8740
71 3 0.0 56.6010 56.2040 69.9500
72 3 0.0 59.9190 55.9300 69.8390
73 2 0.0 57.4150 61.3490 64.7710
74 2 0.0 56.5260 61.1580 65.5560
75 3 0.0 58.2030 61.5190 64.0750
76 3 0.0 55.7380 60.9880 66.2520
77 2 0.0 66.7810 52.0590 60.4540
78 2 0.0 66.3000 51.1180 59.8830
79 3 0.0 67.2070 52.8940 60.9600
80 3 0.0 65.8740 50.2830 59.3760
81 2 0.0 56.4350 52.2800 69.7560
82 2 0.0 56.6610 52.9630 68.7950
83 3 0.0 56.2340 51.6740 70.6090
84 3 0.0 56.8630 53.5690 67.9420
85 2 0.0 57.4510 57.5150 65.2540
86 2 0.0 58.5750 57.0940 65.2530
87 3 0.0 56.4530 57.8870 65.2540
88 3 0.0 59.5740 56.7220 65.2520
89 2 0.0 61.2680 64.9320 73.3020
90 2 0.0 60.3550 65.5470 72.8210
91 3 0.0 62.0770 64.3860 73.7280
92 3 0.0 59.5460 66.0940 72.3940
93 2 0.0 58.8350 57.9630 74.1340
94 2 0.0 59.8360 57.5110 73.6490
95 3 0.0 57.9470 58.3640 74.5650
96 3 0.0 60.7250 57.1110 73.2180
97 2 0.0 61.2870 55.3970 64.2310
98 2 0.0 60.6990 54.3650 64.4040
99 3 0.0 61.8080 56.3130 64.0790
100 3 0.0 60.1770 53.4480 64.5570
